ITEM: TIMESTEP
500000
ITEM: NUMBER OF ATOMS
11
ITEM: BOX BOUNDS mm mm mm
-0.05001 0.05001
-0.05 0.05
-2e-05 0.20002
ITEM: ATOMS id type x y z radius 
3 1 -0.00342698 -0.0298268 0.0197604 0.02 
2 1 0.0292366 -0.00691728 0.01975 0.02 
8 1 -0.0267968 0.0135619 0.0197614 0.02 
10 1 0.01031 0.0282176 0.0197503 0.02 
1 1 -0.0264511 -0.0142425 0.0482551 0.02 
11 1 0.0172805 -0.0245599 0.0534077 0.02 
5 1 0.0264756 0.0142595 0.0533699 0.02 
7 1 -0.0109961 0.0279416 0.0534108 0.02 
9 1 -0.010294 -0.0282099 0.0819567 0.02 
6 1 -0.0292247 0.00693012 0.0819588 0.02 
4 1 0.0101214 0.00545721 0.0886166 0.02 
