ITEM: TIMESTEP
500000
ITEM: NUMBER OF ENTRIES
18
ITEM: BOX BOUNDS mm mm mm
-0.05001 0.05001
-0.05 0.05
-2e-05 0.20002
ITEM: ENTRIES c_cpw[1] c_cpw[2] c_cpw[3] c_cpw[4] c_cpw[5] c_cpw[6] c_cpw[7] 
0 6 5 0.000125911 0.0444582 0.0227215 0.0533699 
0 9 5 9.33832e-05 0.0432833 0.024926 0.0533699 
0 19 10 0.000130099 0.0176245 0.0466922 0.0197503 
0 31 7 0.000126025 -0.0183122 0.0464199 0.0534108 
0 42 8 0.000119547 -0.0447852 0.0220266 0.0197614 
0 45 6 3.45522e-05 -0.048213 0.0130998 0.0819588 
0 46 6 0.000104313 -0.048768 0.0106582 0.0819588 
0 57 1 9.64587e-05 -0.0444603 -0.022717 0.0482551 
0 58 1 6.35388e-05 -0.043284 -0.024925 0.0482551 
0 69 9 0.00011708 -0.0176134 -0.0466966 0.0819567 
0 73 3 0.000119805 -0.00591863 -0.0495503 0.0197604 
0 85 11 0.000125294 0.0289626 -0.0406389 0.0534077 
0 95 2 4.19234e-05 0.0482179 -0.0130847 0.01975 
0 97 2 0.000113617 0.0487708 -0.0106436 0.01975 
0 113 2 0.000250034 0.0292366 -0.00691728 0 
0 120 10 0.000249711 0.01031 0.0282176 6.93889e-18 
0 125 3 0.00023964 -0.00342698 -0.0298268 0 
0 133 8 0.000238555 -0.0267968 0.0135619 0 
