ITEM: TIMESTEP
500000
ITEM: NUMBER OF ENTRIES
21
ITEM: BOX BOUNDS mm mm mm
-0.05001 0.05001
-0.05 0.05
-2e-05 0.20002
ITEM: ENTRIES c_cpp[1] c_cpp[2] c_cpp[3] c_cpp[4] c_cpp[5] c_cpp[6] c_cpp[7] 
3 2 0 0.000103139 0.0129048 -0.0183721 0.0197552 
3 1 0 0.00018878 -0.014939 -0.0220346 0.0340077 
3 11 0 0.000141685 0.00692676 -0.0271934 0.036584 
2 10 0 9.15859e-05 0.0197733 0.0106502 0.0197501 
2 11 0 0.0001621 0.0232586 -0.0157386 0.0365788 
2 5 0 0.000170611 0.0278561 0.00367111 0.0365599 
8 10 0 0.000103835 -0.00824344 0.0208898 0.0197559 
8 1 0 0.000186781 -0.026624 -0.000340273 0.0340083 
8 7 0 0.000141298 -0.0188965 0.0207517 0.0365861 
10 5 0 0.000169908 0.0183928 0.0212386 0.0365601 
10 7 0 0.000162147 -0.000343082 0.0280796 0.0365805 
1 9 0 0.000100898 -0.0183726 -0.0212262 0.0651059 
1 6 0 0.000101287 -0.0278379 -0.00365617 0.065107 
11 5 0 0.000106376 0.0218781 -0.00515022 0.0533888 
11 9 0 0.000141235 0.00349324 -0.0263849 0.0676822 
5 7 0 0.000108514 0.00773974 0.0211005 0.0533904 
5 4 0 0.000159495 0.0182985 0.00985836 0.0709932 
7 6 0 0.00014086 -0.0201104 0.0174358 0.0676848 
9 6 0 8.5158e-05 -0.0197594 -0.0106399 0.0819578 
9 4 0 6.72919e-05 -8.62894e-05 -0.0113764 0.0852866 
6 4 0 6.73511e-05 -0.00955164 0.00619366 0.0852877 
